<VTKFile byte_order="LittleEndian" type="PolyData" version="0.1">
        <PolyData>
            <Piece NumberOfLines="32" NumberOfPoints="24">
                <Points>
                <DataArray Name="coords" NumberOfComponents="3" type="Float64">0.05	0.05	0.05	0.05	0.15000000000000002	0.05	0.15000000000000002	0.05	0.05	0.15000000000000002	0.15000000000000002	0.05	0.25	0.05	0.05	0.25	0.15000000000000002	0.05	0.35000000000000003	0.05	0.05	0.35000000000000003	0.15000000000000002	0.05	0.45	0.05	0.05	0.45	0.15000000000000002	0.05	0.55	0.05	0.05	0.55	0.15000000000000002	0.05	0.65	0.05	0.05	0.65	0.15000000000000002	0.05	0.75	0.05	0.05	0.75	0.15000000000000002	0.05	0.8500000000000001	0.05	0.05	0.8500000000000001	0.15000000000000002	0.05	0.9500000000000001	0.05	0.05	0.9500000000000001	0.15000000000000002	0.05	1.05	0.05	0.05	1.05	0.15000000000000002	0.05	1.1500000000000001	0.05	0.05	1.1500000000000001	0.15000000000000002	0.05</DataArray>
			</Points>
                <Lines>
                <DataArray Name="connectivity" NumberOfComponents="1" type="Int32">2	3	4	5	6	7	8	9	10	11	12	13	14	15	16	17	18	19	20	21	0	2	1	3	2	4	3	5	4	6	5	7	6	8	7	9	8	10	9	11	10	12	11	13	12	14	13	15	14	16	15	17	16	18	17	19	18	20	19	21	20	22	21	23</DataArray>
			<DataArray Name="offsets" NumberOfComponents="1" type="Int32">2	4	6	8	10	12	14	16	18	20	22	24	26	28	30	32	34	36	38	40	42	44	46	48	50	52	54	56	58	60	62	64</DataArray>
			</Lines>
                <PointData>
                <DataArray Name="network | net_01 | labels | pore.all" NumberOfComponents="1" type="Int32">1	1	1	1	1	1	1	1	1	1	1	1	1	1	1	1	1	1	1	1	1	1	1	1</DataArray>
			<DataArray Name="network | net_01 | labels | pore.free_stream" NumberOfComponents="1" type="Int32">0	0	0	0	0	0	0	0	0	0	0	0	0	0	0	0	0	0	0	0	0	0	0	0</DataArray>
			<DataArray Name="network | net_01 | labels | pore.geo_01" NumberOfComponents="1" type="Int32">1	1	1	1	1	1	1	1	1	1	1	1	1	1	1	1	1	1	1	1	1	1	1	1</DataArray>
			<DataArray Name="network | net_01 | labels | pore.neg_cc" NumberOfComponents="1" type="Int32">1	0	1	0	1	0	1	0	1	0	1	0	1	0	1	0	1	0	1	0	1	0	1	0</DataArray>
			<DataArray Name="network | net_01 | labels | pore.neg_tab" NumberOfComponents="1" type="Int32">0	0	0	0	0	0	0	0	0	0	0	0	0	0	0	0	0	0	0	0	0	0	1	0</DataArray>
			<DataArray Name="network | net_01 | labels | pore.pos_cc" NumberOfComponents="1" type="Int32">0	1	0	1	0	1	0	1	0	1	0	1	0	1	0	1	0	1	0	1	0	1	0	1</DataArray>
			<DataArray Name="network | net_01 | labels | pore.pos_tab" NumberOfComponents="1" type="Int32">0	1	0	0	0	0	0	0	0	0	0	0	0	0	0	0	0	0	0	0	0	0	0	0</DataArray>
			<DataArray Name="network | net_01 | properties | pore._id" NumberOfComponents="1" type="Int64">0	1	2	3	4	5	6	7	8	9	10	11	12	13	14	15	16	17	18	19	20	21	22	23</DataArray>
			<DataArray Name="network | net_01 | properties | pore.arc_index" NumberOfComponents="1" type="Int32">0	0	1	1	2	2	3	3	4	4	5	5	6	6	7	7	8	8	9	9	10	10	11	11</DataArray>
			<DataArray Name="network | net_01 | properties | pore.cc_power_loss" NumberOfComponents="1" type="Float64">0.0	0.1504214958028301	0.0015895107871081945	0.1504214958028301	0.00624289510822276	0.12108550965349112	0.013833117980062723	0.0953760357261013	0.02429148982020822	0.073023077608645	0.037605373950701494	0.05381696031144636	0.053816960311437234	0.03760537395070718	0.07302307760863264	0.024291489820211887	0.09537603572608688	0.013833117980064763	0.12108550965346936	0.006242895108222933	0.15042149580280562	0.001589510787108496	0.15042149580280562	0.0</DataArray>
			<DataArray Name="network | net_01 | properties | pore.cell_id" NumberOfComponents="1" type="Int32">-1	-1	-1	-1	-1	-1	-1	-1	-1	-1	-1	-1	-1	-1	-1	-1	-1	-1	-1	-1	-1	-1	-1	-1</DataArray>
			<DataArray Name="network | net_01 | properties | pore.radial_position" NumberOfComponents="1" type="Float64">0.05	0.05	0.15000000000000002	0.15000000000000002	0.25	0.25	0.35000000000000003	0.35000000000000003	0.45	0.45	0.55	0.55	0.65	0.65	0.75	0.75	0.8500000000000001	0.8500000000000001	0.9500000000000001	0.9500000000000001	1.05	1.05	1.1500000000000001	1.1500000000000001</DataArray>
			<DataArray Name="network | net_01 | properties | pore.region_id" NumberOfComponents="1" type="Int32">-1	-1	-1	-1	-1	-1	-1	-1	-1	-1	-1	-1	-1	-1	-1	-1	-1	-1	-1	-1	-1	-1	-1	-1</DataArray>
			<DataArray Name="network | net_01 | properties | pore.volume" NumberOfComponents="1" type="Float64">1.0	1.0	1.0	1.0	1.0	1.0	1.0	1.0	1.0	1.0	1.0	1.0	1.0	1.0	1.0	1.0	1.0	1.0	1.0	1.0	1.0	1.0	1.0	1.0</DataArray>
			<DataArray Name="phase | phase_01 | labels | pore.all" NumberOfComponents="1" type="Int32">1	1	1	1	1	1	1	1	1	1	1	1	1	1	1	1	1	1	1	1	1	1	1	1</DataArray>
			<DataArray Name="phase | phase_01 | labels | pore.phys_01" NumberOfComponents="1" type="Int32">1	1	1	1	1	1	1	1	1	1	1	1	1	1	1	1	1	1	1	1	1	1	1	1</DataArray>
			<DataArray Name="phase | phase_01 | properties | pore.potential" NumberOfComponents="1" type="Float64">0.06822794182113852	0.6164634498689197	0.06822794182113852	0.6041889822270111	0.06696617398193978	0.5931762824243014	0.06446559409962863	0.5834023946647042	0.06074332510903108	0.5748501960133936	0.05581073770587318	0.5675083157746434	0.049673503884919444	0.5613710819536892	0.04233162364616987	0.556438494550531	0.03377942499485997	0.5527162255599332	0.024005537235263667	0.5502156456776218	0.012992837432554952	0.5489538778384231	0.0007183697906474957	0.5489538778384231</DataArray>
			<DataArray Name="phase | phase_01 | properties | pore.pressure" NumberOfComponents="1" type="Float64">101325.0	101325.0	101325.0	101325.0	101325.0	101325.0	101325.0	101325.0	101325.0	101325.0	101325.0	101325.0	101325.0	101325.0	101325.0	101325.0	101325.0	101325.0	101325.0	101325.0	101325.0	101325.0	101325.0	101325.0</DataArray>
			<DataArray Name="phase | phase_01 | properties | pore.temperature" NumberOfComponents="1" type="Float64">298.0	298.0	298.0	298.0	298.0	298.0	298.0	298.0	298.0	298.0	298.0	298.0	298.0	298.0	298.0	298.0	298.0	298.0	298.0	298.0	298.0	298.0	298.0	298.0</DataArray>
			</PointData>
                <CellData>
                <DataArray Name="network | net_01 | labels | throat.all" NumberOfComponents="1" type="Int32">1	1	1	1	1	1	1	1	1	1	1	1	1	1	1	1	1	1	1	1	1	1	1	1	1	1	1	1	1	1	1	1</DataArray>
			<DataArray Name="network | net_01 | labels | throat.geo_01" NumberOfComponents="1" type="Int32">1	1	1	1	1	1	1	1	1	1	1	1	1	1	1	1	1	1	1	1	1	1	1	1	1	1	1	1	1	1	1	1</DataArray>
			<DataArray Name="network | net_01 | labels | throat.neg_cc" NumberOfComponents="1" type="Int32">0	0	0	0	0	0	0	0	0	0	1	0	1	0	1	0	1	0	1	0	1	0	1	0	1	0	1	0	1	0	1	0</DataArray>
			<DataArray Name="network | net_01 | labels | throat.pos_cc" NumberOfComponents="1" type="Int32">0	0	0	0	0	0	0	0	0	0	0	1	0	1	0	1	0	1	0	1	0	1	0	1	0	1	0	1	0	1	0	1</DataArray>
			<DataArray Name="network | net_01 | labels | throat.spm_neg_inner" NumberOfComponents="1" type="Int32">1	1	1	1	1	1	1	1	1	1	0	0	0	0	0	0	0	0	0	0	0	0	0	0	0	0	0	0	0	0	0	0</DataArray>
			<DataArray Name="network | net_01 | labels | throat.spm_resistor" NumberOfComponents="1" type="Int32">1	1	1	1	1	1	1	1	1	1	0	0	0	0	0	0	0	0	0	0	0	0	0	0	0	0	0	0	0	0	0	0</DataArray>
			<DataArray Name="network | net_01 | properties | throat._id" NumberOfComponents="1" type="Int64">24	25	26	27	28	29	30	31	32	33	34	35	36	37	38	39	40	41	42	43	44	45	46	47	48	49	50	51	52	53	54	55</DataArray>
			<DataArray Name="network | net_01 | properties | throat.arc_length" NumberOfComponents="1" type="Float64">0.1	0.1	0.1	0.1	0.1	0.1	0.1	0.1	0.1	0.1	0.1	0.1	0.1	0.1	0.1	0.1	0.1	0.1	0.1	0.1	0.1	0.1	0.1	0.1	0.1	0.1	0.1	0.1	0.1	0.1	0.1	0.1</DataArray>
			<DataArray Name="network | net_01 | properties | throat.area" NumberOfComponents="1" type="Float64">1.0	1.0	1.0	1.0	1.0	1.0	1.0	1.0	1.0	1.0	1.0	1.0	1.0	1.0	1.0	1.0	1.0	1.0	1.0	1.0	1.0	1.0	1.0	1.0	1.0	1.0	1.0	1.0	1.0	1.0	1.0	1.0</DataArray>
			<DataArray Name="network | net_01 | properties | throat.cc_power_loss" NumberOfComponents="1" type="Float64">0.0	0.0	0.0	0.0	0.0	0.0	0.0	0.0	0.0	0.0	0.0	0.1504214958028301	0.0015895107871081945	0.12108550965349112	0.00624289510822276	0.0953760357261013	0.013833117980062723	0.073023077608645	0.02429148982020822	0.05381696031144636	0.037605373950701494	0.03760537395070718	0.053816960311437234	0.024291489820211887	0.07302307760863264	0.013833117980064763	0.09537603572608688	0.006242895108222933	0.12108550965346936	0.001589510787108496	0.15042149580280562	0.0</DataArray>
			<DataArray Name="network | net_01 | properties | throat.electrode_height" NumberOfComponents="1" type="Float64">0.1	0.1	0.1	0.1	0.1	0.1	0.1	0.1	0.1	0.1	0.1	0.1	0.1	0.1	0.1	0.1	0.1	0.1	0.1	0.1	0.1	0.1	0.1	0.1	0.1	0.1	0.1	0.1	0.1	0.1	0.1	0.1</DataArray>
			<DataArray Name="network | net_01 | properties | throat.length" NumberOfComponents="1" type="Float64">1.0	1.0	1.0	1.0	1.0	1.0	1.0	1.0	1.0	1.0	1.0	1.0	1.0	1.0	1.0	1.0	1.0	1.0	1.0	1.0	1.0	1.0	1.0	1.0	1.0	1.0	1.0	1.0	1.0	1.0	1.0	1.0</DataArray>
			<DataArray Name="network | net_01 | properties | throat.spm_resistor_order" NumberOfComponents="1" type="Int32">0	1	2	3	4	5	6	7	8	9	-1	-1	-1	-1	-1	-1	-1	-1	-1	-1	-1	-1	-1	-1	-1	-1	-1	-1	-1	-1	-1	-1</DataArray>
			<DataArray Name="phase | phase_01 | labels | throat.all" NumberOfComponents="1" type="Int32">1	1	1	1	1	1	1	1	1	1	1	1	1	1	1	1	1	1	1	1	1	1	1	1	1	1	1	1	1	1	1	1</DataArray>
			<DataArray Name="phase | phase_01 | labels | throat.phys_01" NumberOfComponents="1" type="Int32">1	1	1	1	1	1	1	1	1	1	1	1	1	1	1	1	1	1	1	1	1	1	1	1	1	1	1	1	1	1	1	1</DataArray>
			<DataArray Name="phase | phase_01 | properties | throat.electrical_conductance" NumberOfComponents="1" type="Float64">0.3719051664625076	0.37736607913057346	0.3818044978769031	0.3848838621660508	0.3864489703418988	0.38644897034190717	0.3848838621660678	0.38180449787582493	0.3773660791305723	0.37190516646250543	998.4	998.4	998.4	998.4	998.4	998.4	998.4	998.4	998.4	998.4	998.4	998.4	998.4	998.4	998.4	998.4	998.4	998.4	998.4	998.4	998.4	998.4</DataArray>
			</CellData>
            </Piece>
        </PolyData>
    </VTKFile>